# vtk DataFile Version 3.0
d-2__ created by libgimli-v1.1.0-2-g6890f54c
ASCII
DATASET UNSTRUCTURED_GRID
POINTS 6770 double
0	0	0
0	-1.5	0
0	-3.2	0
0	-4	0
10	-4	0
10	-3.2	0
10	-1.5	0
10	0	0
0	-2	0
0.10101010101	-2	0
0.20202020202	-2	0
0.30303030303	-2	0
0.40404040404	-2	0
0.505050505051	-2	0
0.606060606061	-2	0
0.707070707071	-2	0
0.808080808081	-2	0
0.909090909091	-2	0
1.010101010101	-2	0
1.111111111111	-2	0
1.212121212121	-2.000000000001	0
1.313131313131	-2.000000000002	0
1.414141414141	-2.000000000006	0
1.515151515152	-2.000000000016	0
1.616161616162	-2.000000000044	0
1.717171717172	-2.000000000116	0
1.818181818182	-2.000000000302	0
1.919191919192	-2.000000000771	0
2.020202020202	-2.000000001925	0
2.121212121212	-2.000000004709	0
2.222222222222	-2.00000001129	0
2.323232323232	-2.000000026519	0
2.424242424242	-2.000000061036	0
2.525252525253	-2.000000137641	0
2.626262626263	-2.000000304121	0
2.727272727273	-2.000000658388	0
2.828282828283	-2.000001396548	0
2.929292929293	-2.000002902468	0
3.030303030303	-2.0000059104	0
3.131313131313	-2.000011792448	0
3.232323232323	-2.000023053073	0
3.333333333333	-2.000044156175	0
3.434343434343	-2.000082868945	0
3.535353535354	-2.000152380685	0
3.636363636364	-2.0002745401	0
3.737373737374	-2.000484640167	0
3.838383838384	-2.000838244619	0
3.939393939394	-2.001420561025	0
4.040404040404	-2.002358776363	0
4.141414141414	-2.003837526532	0
4.242424242424	-2.006117215307	0
4.343434343434	-2.009554190441	0
4.444444444444	-2.014620821414	0
4.545454545455	-2.021922364923	0
4.646464646465	-2.032206296347	0
4.747474747475	-2.046358771466	0
4.848484848485	-2.065382391775	0
4.949494949495	-2.09034985095	0
5.050505050505	-2.122329676965	0
5.151515151515	-2.162283351774	0
5.252525252525	-2.210937532132	0
5.353535353535	-2.268640510432	0
5.454545454545	-2.335217666767	0
5.555555555556	-2.409845381525	0
5.656565656566	-2.490965464031	0
5.757575757576	-2.576261484162	0
5.858585858586	-2.662713770441	0
5.959595959596	-2.746741259343	0
6.060606060606	-2.824426707687	0
6.161616161616	-2.89180870821	0
6.262626262626	-2.9452117607	0
6.363636363636	-2.981576779803	0
6.464646464646	-2.998750908303	0
6.565656565657	-2.995698493481	0
6.666666666667	-2.972604477116	0
6.767676767677	-2.93085584558	0
6.868686868687	-2.872903727377	0
6.969696969697	-2.80202520547	0
7.070707070707	-2.722017024624	0
7.171717171717	-2.636860935551	0
7.272727272727	-2.550401405914	0
7.373737373737	-2.466071138741	0
7.474747474747	-2.38668972971	0
7.575757575758	-2.314348083211	0
7.676767676768	-2.250378334995	0
7.777777777778	-2.195398141753	0
7.878787878788	-2.149410755931	0
7.979797979798	-2.111938903498	0
8.080808080808	-2.082170888977	0
8.181818181818	-2.059100706715	0
8.282828282828	-2.041649051404	0
8.383838383838	-2.028757776642	0
8.484848484848	-2.019455538225	0
8.585858585859	-2.012896413362	0
8.686868686869	-2.008375917512	0
8.787878787879	-2.005330078313	0
8.888888888889	-2.003323322899	0
8.989898989899	-2.002030248702	0
9.090909090909	-2.001215244586	0
9.191919191919	-2.000712715001	0
9.292929292929	-2.000409548987	0
9.393939393939	-2.000230586334	0
9.494949494949	-2.000127203489	0
9.59595959596	-2.000068754675	0
9.69696969697	-2.000036411888	0
9.79797979798	-2.000018893913	0
9.89898989899	-2.000009605907	0
10	-2.000004785117	0
0	-0.5	0
10	-1	0
4.5	-0.4	0
4.433012701892	-0.35	0
4.25	-0.313397459622	0
4	-0.3	0
3.75	-0.313397459622	0
3.566987298108	-0.35	0
3.5	-0.4	0
3.566987298108	-0.45	0
3.75	-0.486602540378	0
4	-0.5	0
4.25	-0.486602540378	0
4.433012701892	-0.45	0
7	-0.2	0
7	-0.5	0
7.5	-0.5	0
7.5	-0.2	0
0	-0.1	0
0.1	0	0
0.1	-0.1	0
0.2	0	0
0.2	-0.1	0
0.3	0	0
0.3	-0.1	0
0.4	0	0
0.4	-0.1	0
0.5	0	0
0.5	-0.1	0
0.6	0	0
0.6	-0.1	0
0.7	0	0
0.7	-0.1	0
0.8	0	0
0.8	-0.1	0
0.9	0	0
0.9	-0.1	0
1	0	0
1	-0.1	0
1.1	0	0
1.1	-0.1	0
1.2	0	0
1.2	-0.1	0
1.3	0	0
1.3	-0.1	0
1.4	0	0
1.4	-0.1	0
1.5	0	0
1.5	-0.1	0
1.6	0	0
1.6	-0.1	0
1.7	0	0
1.7	-0.1	0
1.8	0	0
1.8	-0.1	0
1.9	0	0
1.9	-0.1	0
2	0	0
2	-0.1	0
2.1	0	0
2.1	-0.1	0
2.2	0	0
2.2	-0.1	0
2.3	0	0
2.3	-0.1	0
2.4	0	0
2.4	-0.1	0
2.5	0	0
2.5	-0.1	0
2.6	0	0
2.6	-0.1	0
2.7	0	0
2.7	-0.1	0
2.8	0	0
2.8	-0.1	0
2.9	0	0
2.9	-0.1	0
3	0	0
3	-0.1	0
3.1	0	0
3.1	-0.1	0
3.2	0	0
3.2	-0.1	0
3.3	0	0
3.3	-0.1	0
3.4	0	0
3.4	-0.1	0
3.5	0	0
3.5	-0.1	0
3.6	0	0
3.6	-0.1	0
3.7	0	0
3.7	-0.1	0
3.8	0	0
3.8	-0.1	0
3.9	0	0
3.9	-0.1	0
4	0	0
4	-0.1	0
4.1	0	0
4.1	-0.1	0
4.2	0	0
4.2	-0.1	0
4.3	0	0
4.3	-0.1	0
4.4	0	0
4.4	-0.1	0
4.5	0	0
4.5	-0.1	0
4.6	0	0
4.6	-0.1	0
4.7	0	0
4.7	-0.1	0
4.8	0	0
4.8	-0.1	0
4.9	0	0
4.9	-0.1	0
5	0	0
5	-0.1	0
5.1	0	0
5.1	-0.1	0
5.2	0	0
5.2	-0.1	0
5.3	0	0
5.3	-0.1	0
5.4	0	0
5.4	-0.1	0
5.5	0	0
5.5	-0.1	0
5.6	0	0
5.6	-0.1	0
5.7	0	0
5.7	-0.1	0
5.8	0	0
5.8	-0.1	0
5.9	0	0
5.9	-0.1	0
6	0	0
6	-0.1	0
6.1	0	0
6.1	-0.1	0
6.2	0	0
6.2	-0.1	0
6.3	0	0
6.3	-0.1	0
6.4	0	0
6.4	-0.1	0
6.5	0	0
6.5	-0.1	0
6.6	0	0
6.6	-0.1	0
6.7	0	0
6.7	-0.1	0
6.8	0	0
6.8	-0.1	0
6.9	0	0
6.9	-0.1	0
7	0	0
7	-0.1	0
7.1	0	0
7.1	-0.1	0
7.2	0	0
7.2	-0.1	0
7.3	0	0
7.3	-0.1	0
7.4	0	0
7.4	-0.1	0
7.5	0	0
7.5	-0.1	0
7.6	0	0
7.6	-0.1	0
7.7	0	0
7.7	-0.1	0
7.8	0	0
7.8	-0.1	0
7.9	0	0
7.9	-0.1	0
8	0	0
8	-0.1	0
8.1	0	0
8.1	-0.1	0
8.2	0	0
8.2	-0.1	0
8.3	0	0
8.3	-0.1	0
8.4	0	0
8.4	-0.1	0
8.5	0	0
8.5	-0.1	0
8.6	0	0
8.6	-0.1	0
8.7	0	0
8.7	-0.1	0
8.8	0	0
8.8	-0.1	0
8.9	0	0
8.9	-0.1	0
9	0	0
9	-0.1	0
9.1	0	0
9.1	-0.1	0
9.2	0	0
9.2	-0.1	0
9.3	0	0
9.3	-0.1	0
9.4	0	0
9.4	-0.1	0
9.5	0	0
9.5	-0.1	0
9.6	0	0
9.6	-0.1	0
9.7	0	0
9.7	-0.1	0
9.8	0	0
9.8	-0.1	0
9.9	0	0
9.9	-0.1	0
10	-0.1	0
6	-1.5	0
6	-3.2	0
5	-0.75	0
7.25	-0.2	0
3	-1.5	0
8	-1.5	0
8	-3.2	0
2	-3.2	0
7.5	-0.875	0
2.5	-0.625	0
9	-1.5	0
8.75	-0.9375	0
3.75	-0.6875	0
0.998752338878	-0.549937616944	0
1.749376169439	-0.587468808472	0
5	-4	0
4.5	-1.5	0
1.5	-1.5	0
7	-3.2	0
4	-3.2	0
6.25	-0.8125	0
3.125	-0.65625	0
4.375	-0.71875	0
7.5	-4	0
2.5	-4	0
2.25	-1.5	0
3.75	-1.5	0
0.75	-1.5	0
6.5	-3.2	0
6.875	-0.84375	0
4.0625	-0.703125	0
6.25	-4	0
3.75	-4	0
7	-1.5	0
3.455810899365	-0.270924849775	0
4.544189100635	-0.270924849775	0
3.4375	-0.671875	0
4.544189100635	-0.529075150225	0
3.455810899365	-0.529075150225	0
0	-2.6	0
0	-1.75	0
0.757575757576	-2.156934847856	0
4.401811190452	-1.855152658071	0
0.555555555556	-1.843065152144	0
1.464646464631	-2.156934847869	0
1.638257679306	-1.747328285193	0
1.125	-1.5	0
1.464646464662	-1.843065152153	0
0.499376169439	-0.524968808472	0
0	-0.3	0
0.95	-0.255365499378	0
3.181808430119	-2.08749214613	0
3.687195109887	-1.843444742277	0
3.484740487587	-2.157052472673	0
4.125	-1.5	0
3.181835676944	-1.843082574904	0
2.878785539108	-2.156936997364	0
4.579981914547	-2.183999178491	0
4.088611623324	-2.160032999304	0
8.5	-1.5	0
2.373737320109	-2.156934891634	0
2.878790218468	-1.843067301652	0
2.625	-1.5	0
2.95	-0.255365499378	0
4.327846096908	-0.4	0
3.672153903092	-0.4	0
3.609375	-1.404544328966	0
7.125	-0.2	0
1.85	-0.255365499378	0
2.35	-0.255365499378	0
2.65	-0.255365499378	0
6.75	-3.2	0
9.039137805189	-1.844687898788	0
8.65	-0.255365499378	0
3.65	-0.224271572555	0
3.95	-0.2	0
4.125	-0.306698729811	0
4.35	-0.224271572555	0
6.518048747785	-3.093099533782	0
8.734704570982	-1.918334612912	0
6.58028148231	-2.827216637442	0
5.05	-0.255365499378	0
9.34327911958	-1.912708619813	0
6.25	-0.255365499378	0
6.65	-0.255365499378	0
5.25	-1.5	0
8.167156235192	-2.227570645702	0
1.301294690174	-2.179805174334	0
4.718957760613	-1.88234768605	0
8.742105920656	-2.163787845769	0
6.85	-0.25	0
9.242895257816	-2.15749597985	0
9.479647695615	-0.339329492661	0
10	-1.750004785117	0
10	-2.600002392558	0
7.375	-0.2	0
7.65	-0.25	0
8.15	-0.255365499378	0
9.15	-0.255365499378	0
9.65	-0.255365499378	0
3.45	-0.178248045434	0
3.25	-0.255365499378	0
4.55	-0.178248045434	0
4.75	-0.255365499378	0
0.151515151515	-1.843065152144	0
0.656565656566	-2.102847861046	0
1.060606060606	-2.156934847856	0
0.858585858586	-2.102847861046	0
4.502511091421	-1.913663899954	0
4.2964772484	-1.903563973667	0
0.656565656566	-1.897152138954	0
0.454545454546	-1.897152138954	0
1.868686867958	-2.156934848393	0
1.565656565628	-2.102847861062	0
1.363636363632	-2.102847861046	0
2.070707073542	-1.897152140922	0
1.96969697071	-1.91137412788	0
0.858585858586	-1.843065152144	0
0.959595959596	-1.897152138954	0
1.161616161617	-1.897152138954	0
1.565656565686	-1.897152138968	0
1.36363636364	-1.897152138952	0
0.55	-0.255365499378	0
0.25	-0.255365499378	0
0	-0.2	0
1.05	-0.201819382436	0
0.85	-0.201819382436	0
1.374064254158	-0.568703212708	0
3.788239240834	-1.897695008616	0
3.375	-1.5	0
3.686542263851	-2.15731443799	0
3.383798976497	-2.102885902686	0
3.990858500165	-1.898586914013	0
3.080814070132	-1.897156538063	0
3.282849771578	-1.897177597872	0
2.777777026193	-2.102848253068	0
3.080798942135	-2.15694369928	0
4.487672078346	-2.118947920764	0
4.860199081361	-2.234800969219	0
4.683042814243	-2.138682520071	0
3.988947789725	-2.104297742588	0
4.287589419349	-2.16477055073	0
8.106969574058	-1.964050373018	0
9.071998166645	-2.240315798305	0
2.272727257221	-2.102847863986	0
2.575757317106	-2.156935068737	0
2.777778529373	-1.897152530953	0
2.272727296388	-1.843065171048	0
2.575757745267	-1.897152285447	0
3.05	-0.201819382436	0
2.85	-0.201819382436	0
1.65	-0.201819382436	0
2.124688084719	-0.606234404236	0
1.95	-0.201819382436	0
2.45	-0.201819382436	0
2.25	-0.201819382436	0
9.140901170215	-1.897855079991	0
8.578292663806	-2.240000816463	0
8.938072309053	-1.899435986077	0
8.55	-0.201819382436	0
8.85	-0.255365499378	0
8.75	-0.201819382436	0
3.75	-0.192311633601	0
4.05	-0.1875	0
4.25	-0.192311633601	0
6.25	-3.2	0
6.641017806172	-3.092869095262	0
6.05	-0.201819382436	0
5.625	-0.78125	0
6.437053361805	-2.855406604532	0
4.95	-0.201819382436	0
5.25	-0.255365499378	0
5.15	-0.201819382436	0
8.321508654755	-1.942550670239	0
8.52851313528	-1.910834254631	0
6.45	-0.255365499378	0
6.35	-0.201819382436	0
6.55	-0.201819382436	0
8.448795903513	-2.18104150529	0
8.249512298134	-2.149865113249	0
1.638257679295	-2.252671714703	0
4.817991671846	-1.949613130736	0
8.640910387255	-2.112232933133	0
8.941402930577	-2.159611633657	0
8.840410616427	-2.106344641313	0
6.75	-0.2	0
[...]
CELL_DATA 13188
SCALARS _Attribute double 1
LOOKUP_TABLE default
114.43195880876 114.43195880876 114.43195880876 114.43195880876 304.92738549191 304.92738549191 304.92738549191 304.92738549191 316.55682892801 318.49253067722 317.52467980261 317.52467980261 106.15357496666 106.15357496666 106.15357496666 106.15357496666 303.88747813019 301.10258301149 306.67237324888 303.88747813019 309.36795998019 309.36795998019 309.36795998019 309.36795998019 255.26259051595 255.26259051595 255.26259051595 255.26259051595 278.12657409481 278.12657409481 278.12657409481 278.12657409481 319.6770557707 319.6770557707 319.6770557707 319.6770557707 312.60672508678 312.60672508678 312.60672508678 312.60672508678 255.26259051595 255.26259051595 255.26259051595 255.26259051595 247.16209642167 247.16209642167 247.16209642167 247.16209642167 270.75092926458 270.75092926458 270.75092926458 270.75092926458 235.49643637171 235.49643637171 235.49643637171 235.49643637171 309.36795998019 309.36795998019 309.36795998019 309.36795998019 270.75092926458 270.75092926458 270.75092926458 270.75092926458 166.05406123693 166.05406123693 166.05406123693 166.05406123693 284.32693683851 284.32693683851 284.32693683851 284.32693683851 92.218564036356 92.157937318612 92.165196114946 92.165196114946 117.69580847629 117.69580847629 117.69580847629 117.69580847629 103.32591881588 103.32591881588 103.32591881588 103.32591881588 108.91834686082 108.91834686082 108.91834686082 108.91834686082 69.246806115317 69.246806115317 69.246806115317 69.246806115317 56.701822952843 56.701822952843 56.701822952843 56.701822952843 81.813800172557 81.813800172557 81.813800172557 81.813800172557 81.813800172557 81.813800172557 81.813800172557 81.813800172557 187.41283617738 196.39884225908 191.90583921823 191.90583921823 235.49643637171 235.49643637171 235.49643637171 235.49643637171 182.770973947 182.770973947 182.770973947 182.770973947 216.11957378732 216.11957378732 216.11957378732 216.11957378732 117.69580847629 117.69580847629 117.69580847629 117.69580847629 121.3747729925 129.17787192249 125.27632245749 125.27632245749 172.11038226007 172.11038226007 172.11038226007 172.11038226007 208.1319693015 208.1319693015 208.1319693015 208.1319693015 90.561471098171 93.496234549063 92.028852823613 92.028852823613 91.930402319878 91.930402319878 91.930402319878 91.930402319878 89.089374377095 89.089374377095 89.089374377095 89.089374377095 200.74775985354 200.74775985354 200.74775985354 200.74775985354 13.934647070539 13.934647070539 13.934647070539 13.934647070539 44.438794503467 44.438794503467 44.438794503467 44.438794503467 44.438794503467 44.438794503467 44.438794503467 44.438794503467 68.912824721073 71.538227795407 58.477180269694 64.96925017263 62.015990101306 70.746406296553 44.438794503467 57.426812163818 44.438794503467 44.438794503467 44.438794503467 44.438794503467 68.661895841921 68.619984600039 68.661895841921 68.661895841921 65.263685629382 65.263685629382 65.263685629382 65.263685629382 70.681763437967 70.664213815625 70.674494144614 70.674494144614 70.701077117372 57.804384091755 44.438794503467 57.234365812033 69.990211011624 69.104667565155 69.623406817024 69.623406817024 73.548592159622 72.667437400304 72.667437400304 72.667437400304 69.547439288389 69.104667565155 69.990211011624 69.547439288389 68.661895841921 68.661895841921 68.661895841921 68.661895841921 70.432982734858 70.432982734858 70.463925060326 70.432982734858 70.432982734858 70.432982734858 70.432982734858 70.432982734858 29.787804784682 29.787804784682 29.787804784682 29.787804784682 70.681763438285 70.681763438126 70.681763437967 70.681763438126 75.762117954578 75.762117954578 75.762117954578 75.762117954578 75.762117954578 75.762117954578 75.374415956971 75.762117954578 78.830772390011 85.975927121463 81.289198874152 81.289198874152 68.661895841921 68.619984600039 68.66189579523 68.66189579523 191.86334728038 191.86334728038 191.86334728038 191.86334728038 146.13619220082 146.13619220082 146.13619220082 146.13619220082 182.770973947 182.770973947 182.770973947 182.770973947 76.529281563436 78.063608781153 77.16482086034 77.16482086034 85.425745673412 85.975927121463 85.653638346257 85.653638346257 78.830772390011 79.645746189083 78.830772390011 78.830772390011 85.998921601004 82.837822821779 84.689551296942 84.689551296942 89.311231234868 86.151656764692 89.311231234868 89.311231234868 85.975927121463 84.87556422536 83.738744837361 84.87556422536 79.811623739851 77.711437339232 78.941697838124 78.941697838124 72.928989438615 72.928989438615 72.928989438615 72.928989438615 91.66001572755 91.66001572755 91.66001572755 91.66001572755 91.66001572755 91.659997600253 91.66001572755 91.66001572755 78.830772390011 78.830772390012 78.830772390011 78.830772390011 240.6003389736 250.4807915904 245.540565282 245.540565282 69.768562237753 71.930024229289 70.663869326439 70.663869326439 65.225271458369 65.225271458369 65.225271458369 65.225271458369 182.74726405318 182.74726405318 182.74726405318 182.74726405318 223.3335447326 223.3335447326 223.3335447326 223.3335447326 150.35329763636 150.35329763636 150.35329763636 150.35329763636 170.46658975238 170.46658975238 170.46658975238 170.46658975238 178.61412252792 178.61412252792 178.61412252792 178.61412252792 285.62577341887 287.91016343142 290.19455344396 287.91016343142 283.37950749549 283.37950749549 283.37950749549 283.37950749549 138.08652417568 138.08652417568 138.08652417568 138.08652417568 201.0466696104 208.32329486045 215.59992011051 208.32329486045 102.73955959294 102.73955959294 102.73955959294 102.73955959294 63.354275010768 63.354275010768 63.354275010768 63.354275010768 82.617886332675 82.617886332675 82.617886332675 82.617886332675 120.11035335545 120.11035335545 120.11035335545 120.11035335545 170.46658975238 170.46658975238 170.46658975238 170.46658975238 140.41346241363 145.37397650745 135.4529483198 140.41346241363 78.761593522814 78.761593522814 78.761593522814 78.761593522814 73.01775585897 76.728662675469 62.321507783673 74.34057707131 165.61173835401 161.01859603284 155.55813734243 161.01859603284 66.279843236267 66.279843236267 66.279843236267 66.279843236267 94.891804803427 94.891804803427 94.891804803427 94.891804803427 278.12657409481 278.12657409481 278.12657409481 278.12657409481 229.39858387145 229.39858387145 229.39858387145 229.39858387145 255.39554413621 255.39554413621 255.39554413621 255.39554413621 106.29702692602 96.663815203091 109.44933673989 106.48423778279 126.71999058979 119.26793237961 124.80831955794 124.80831955794 290.54588191487 290.54588191487 290.54588191487 290.54588191487 88.941327072368 95.264724319417 92.103025695912 92.103025695912 296.97346865599 296.97346865599 296.97346865599 296.97346865599 205.69699046798 205.69699046798 205.69699046798 205.69699046798 292.03232658545 292.03232658545 292.03232658545 292.03232658545 267.5372340448 267.5372340448 267.5372340448 267.5372340448 281.57666253656 287.76811815087 284.67239034371 284.67239034371 261.79688342439 273.1196300368 267.45825673058 267.45825673058 292.51771459558 292.51771459558 292.51771459558 292.51771459558 293.7230365281 292.11634869236 295.32972436384 293.7230365281 89.266326300937 92.519985776485 86.012666825413 89.266326300937 194.2000384876 194.2000384876 194.2000384876 194.2000384876 63.677770900648 63.677770900648 63.677770900648 63.677770900648 243.09607197816 235.85186767512 229.75873075873 235.85186767512 46.493544022978 46.493544022978 46.493544022978 46.493544022978 63.060070257576 63.060070257576 63.060070257576 63.060070257576 60.869575748315 60.869575748315 60.869575748315 60.869575748315 61.479158996286 61.479158996286 61.479158996286 61.479158996286 81.628200936235 84.403007896754 87.177814857333 84.403007896754 71.324285884476 71.324285884476 71.324285884476 71.324285884476 65.225271458369 65.225271458369 65.225271458369 65.225271458369 66.279843236267 66.279843236267 66.279843236267 66.279843236267 78.355154220459 76.597650678257 80.112657762651 78.355154220459 62.238180548727 62.238180548727 62.238180548727 62.238180548727 60.983165962476 61.317400883956 61.150283423216 61.150283423216 72.206926165425 72.206926165425 72.206926165425 72.206926165425 66.263689044111 68.273922411047 67.26880572757 67.26880572757 61.897937615113 62.687711732151 62.292824673632 62.292824673632 74.781918683762 74.781918683762 74.781918683762 74.781918683762 75.891712515059 75.891712515059 75.891712515059 75.891712515059 89.86376118967 89.86376118967 89.86376118967 89.86376118967 60.810511588102 60.810511588102 60.810511588102 60.810511588102 7.5016093929352 7.5016093929352 7.5016093929352 7.5016093929352 78.619709926748 54.020141838336 66.319925882542 66.319925882542 548.60727997631 548.60727997631 548.60727997631 548.60727997631 414.89728034642 511.18585692137 318.60870377154 414.89728034642 27.508559470177 29.2457586294 30.982957788623 29.2457586294 14.882488285258 14.882488285258 14.882488285258 14.882488285258 300.61931910162 2100.3291799786 2069.1261802642 1308.3213725499 17.9057546212 17.9057546212 17.9057546212 17.9057546212 111.3480962029 111.3480962029 111.3480962029 111.3480962029 100.51362106714 100.51362106714 100.51362106714 100.51362106714 41.656023938941 18.886414241604 30.271219090272 30.271219090272 7.5016093929352 7.5016093929352 7.5016093929352 7.5016093929352 25.67578308716 25.67578308716 25.67578308716 25.67578308716 87.161969966521 87.161969966521 87.161969966521 87.161969966521 414.20598871905 414.20598871905 414.20598871905 414.20598871905 4.3752995196098 4.3752995196098 4.3752995196098 4.3752995196098 414.20598871905 414.20598871905 414.20598871905 414.20598871905 10.627289987475 10.627289987475 10.627289987475 10.627289987475 60.692708952427 60.692708952427 60.692708952427 60.692708952427 5623.0737220739 5623.0737220739 5623.0737220739 5623.0737220739 25.67578308716 25.67578308716 25.67578308716 25.67578308716 73.426575201952 107.86411904109 90.645347121522 90.645347121522 494.0700414247 414.20598871905 453.98456642334 463.78543565838 266.89708463515 266.89708463515 266.89708463515 266.89708463515 251.17780161367 251.17780161367 251.17780161367 251.17780161367 4.3752995196098 4.3752995196098 4.3752995196098 4.3752995196098 53.660035447296 53.660035447296 53.660035447296 53.660035447296 44.438794503467 44.438794503467 44.438794503467 44.438794503467 44.438794503467 44.438794503467 44.438794503467 44.438794503467 91.660015727529 91.66001572755 91.659997600253 91.660015727529 77.333407093975 76.634643215663 76.983464737828 76.983464737828 69.332570276927 68.921265467856 68.813831025058 68.921265467856 76.706886535856 76.809053976745 76.634643215663 76.706886535856 92.157937318612 82.911642163383 76.373521450094 82.911642163383 463.92800257415 463.92800257415 463.92800257415 463.92800257415 44.438794503467 55.308990790753 70.681763437967 59.811564513269 32.036552795626 32.036552795626 32.036552795626 32.036552795626 70.432982734858 70.432982734858 70.432982734858 70.432982734858 70.357015080356 70.249580637558 69.990210885756 70.249580637558 286.24152786541 286.24152786541 286.24152786541 286.24152786541 70.681763437967 70.678752397341 70.681763437967 70.681763437967 93.274279390964 96.490460580072 99.706641769153 96.490460580072 92.157937318612 92.157937318612 92.157937318612 92.157937318612 121.0901961372 107.61912711734 134.56126515706 121.0901961372 84.212930812008 84.212930812008 84.212930812008 84.212930812008 92.157968336515 92.157937318612 92.157937318612 92.157937318612 62.353975300568 66.648404112536 56.28073834765 62.353975300568 84.212930812008 84.203960774662 84.212930802014 84.212930802014 52.110552548692 54.451402821582 49.762180651222 52.110552548692 52.616113226519 51.267542073193 54.523280051404 52.616113226519 84.212930812008 84.203960774662 84.212930812008 84.212930812008 84.212930812008 84.212930812008 84.212930812008 84.212930812008 124.6011005178 124.57563989044 124.6371072674 124.6011005178 124.57563989044 124.6371072674 124.57563989044 124.57563989044 125.08289096066 125.08289096066 125.08289096066 125.08289096066 125.01579220091 124.82363404276 124.94869344116 124.94869344116 125.08289096066 125.08289096066 125.08289096066 125.08289096066 93.599617866958 107.86411904109 73.426575201952 93.599617866958 124.69857464435 124.57563989044 124.81449592165 124.69857464435 124.9032285773 124.82363404276 125.01579220091 124.9032285773 125.08289096066 125.08289096066 125.08289096066 125.08289096066 89.311231234868 89.311231234864 89.311231234868 89.311231234868 84.270040183592 92.157937318612 76.373521450094 84.265729386754 56.207803282383 56.207803282383 56.207803282383 56.207803282383 14.103875786302 14.103875786302 14.103875786302 14.103875786302 68.661895841921 68.661895841921 68.661895841921 68.661895841921 71.324285884476 71.324285884476 71.324285884476 71.324285884476 75.893742484615 76.07988760303 76.529281781519 76.07988760303 77.668735627207 78.381378429604 78.56752354802 78.381378429604 31.589955574426 31.589955574426 31.592682386957 31.589955574426 75.762117954578 75.762117954578 75.762117954578 75.762117954578 229.91805083231 229.91805083231 229.91805083231 229.91805083231 74.239634108374 74.239634108374 74.239634108374 74.239634108374 85.787134760339 85.975927121463 85.975927121463 85.975927121463 43.871705304072 44.175573956352 43.871705304072 43.871705304072 83.403326133048 81.584329815456 80.489715544487 81.584329815456 76.634643215663 76.664567385939 76.634643215663 76.634643215663 407.20085619678 407.20085619678 407.20085619678 407.20085619678 91.66001572755 91.66001572755 91.66001572755 91.66001572755 44.719188499478 73.618310380051 73.618310380051 73.618310380051 78.830772390012 78.830772390011 78.830772390011 78.830772390011 41.097618691914 41.097618691914 41.097618691914 41.097618691914 56.195284590435 56.177392391244 56.177392411177 56.177392411177 92.157937318612 92.157937318612 92.157937318612 92.157937318612 73.618310380051 44.719188499478 44.719188499478 44.719188499478 84.212930812008 84.212930812008 84.212930812008 84.212930812008 84.212930812008 84.212930812008 84.212930812008 84.212930812008 56.826977288927 56.826977288927 56.826977288927 56.826977288927 84.212930812008 84.212930812008 84.212930812008 84.212930812008 51.093074634505 51.093074634505 51.093074634505 51.093074634505 65.521463357867 65.521463357867 65.521463357867 65.521463357867 89.311231234868 89.311231234868 89.311231234864 89.311231234868 124.58618603016 124.57563989044 124.57563989044 124.57563989044 76.809053976745 76.634643215663 76.634643215663 76.634643215663 105.75729218884 108.95799780656 112.15870342427 108.95799780656 125.08289096066 125.08289096066 125.08289096066 125.08289096066 107.86411414629 122.12861532043 117.95064037359 117.95064037359 85.429532099217 85.429532099217 85.429532099217 85.429532099217 124.64801795613 124.71436920624 124.7925973381 124.71436920624 116.27808581649 116.27808581649 116.27808581649 116.27808581649 58.978228660349 54.204203956081 53.546395078007 54.204203956081 78.830773297944 78.830772390011 79.645746189083 78.830773297944 76.589841781812 76.52648301269 79.171303172558 76.52648301269 48.774354739818 48.774354739818 48.774354739818 48.774354739818 47.721255655565 41.72035779413 56.207803282383 50.20690396489 91.673125708072 91.673125708072 91.673125708072 91.673125708072 54.020141838336 78.619709926748 64.209619041455 64.209619041455 5623.0737220739 5623.0737220739 5623.0737220739 5623.0737220739 5623.0737220739 5623.0737220739 5623.0737220739 5623.0737220739 90.919496396034 90.919493970954 93.09628028777 90.919496396034 5623.0737220739 5623.0737220739 5623.0737220739 5623.0737220739 5623.0737220739 5623.0737220739 5623.0737220739 5623.0737220739 90.919493970954 90.919493970954 93.09628028777 90.919493970954 90.919493970954 90.919493970957 90.919493970954 90.919493970954 5623.0737220739 5623.0737220739 5623.0737220739 5623.0737220739 5623.0737220739 5623.0737220739 5623.0737220739 5623.0737220739 7.5016093929352 7.5016093929352 7.5016093929352 7.5016093929352 7.5016093929352 7.5016093929352 7.5016093929352 7.5016093929352 7.5016093929352 7.5016093929352 7.5016093929352 7.5016093929352 18.886414241604 41.656023938941 28.317897676641 28.317897676641 7.5016093929352 7.5016093929352 7.5016093929352 7.5016093929352 7.5016093929352 7.5016093929352 7.5016093929352 7.5016093929352 5623.0737220739 5623.0737220739 5623.0737220739 5623.0737220739 5623.0737220739 5623.0737220739 5623.0737220739 5623.0737220739 63.833539001132 54.566780802659 59.995121144737 59.995121144737 54.566780802659 63.833539001132 64.465945527476 64.465945527476 396.26722176365 519.9202784967 447.48600731911 447.48600731911 433.85927405786 301.30116651022 168.40536699073 301.30116651022 519.9202784967 396.26722176365 491.23327701708 491.23327701708 412.54928486214 140.43329463378 299.83512382197 299.83512382197 29.726840222036 44.667616077842 60.058967971269 44.667616077842 71.866859842112 200.1836350583 125.01742131311 125.01742131311 4.3752995196098 4.3752995196098 4.3752995196098 4.3752995196098 414.20598871905 414.20598871905 414.20598871905 414.20598871905 414.20598871905 414.20598871905 414.20598871905 414.20598871905 414.20598871905 414.20598871905 414.20598871905 414.20598871905 414.20598871905 414.20598871905 414.20598871905 414.20598871905 414.20598871905 414.20598871905 414.20598871905 414.20598871905 414.20598871905 414.20598871905 414.20598871905 414.20598871905 414.20598871905 414.20598871905 414.20598871905 414.20598871905 140.43329463378 412.54928486214 276.49128974796 276.49128974796 4.3752995196098 4.3752995196098 4.3752995196098 4.3752995196098 53.04082878761 53.04082878761 53.04082878761 53.04082878761 54.207284664971 59.28743650856 56.311552968081 56.311552968081 97.119395612265 101.30178589934 99.210590755798 99.210590755798 41.72035779413 41.72035779413 41.72035779413 41.72035779413 14.229786821868 14.229786821868 14.229786821868 14.229786821868 86.698876792309 72.288785907016 83.714448528307 83.714448528307 5623.0737220739 90.919493970954 2382.4133603997 3331.5792996373 152.21959861184 152.21959861184 152.21959861184 152.21959861184 54.020141838336 54.020141838336 58.240762513452 54.020141838336 97.468782758628 97.468782758628 97.468782758628 97.468782758628 61.12992071775 61.12992071775 61.12992071775 61.12992071775 5623.0737220739 5623.0737220739 5623.0737220739 5623.0737220739 60.433258260884 60.433258260884 60.433258260884 60.433258260884 7.5016093929352 7.5016093929352 7.5016093929352 7.5016093929352 7.5016093929352 7.5016093929352 7.5016093929352 7.5016093929352 5623.0737220739 5623.0737220739 5623.0737220739 5623.0737220739 5623.0737220739 5623.0737220739 5623.0737220739 5623.0737220739 145.66979568409 145.66979568409 145.66979568409 145.66979568409 5623.0737220739 5623.0737220739 5623.0737220739 5623.0737220739 250.01745410161 250.01745410161 250.01745410161 250.01745410161 43.705390494648 43.705390494648 43.705390494648 43.705390494648 50.771991042727 35.996188747534 46.854927618007 46.854927618007 11.296910927414 11.296910927414 11.296910927414 11.296910927414 87.946102024268 60.714854151636 61.73270990967 61.73270990967 350.19751610313 189.79493512042 281.40413573779 281.40413573779 76.161472113526 76.161472113526 76.161472113526 76.161472113526 58.324192844044 61.170494273828 60.683638664779 61.170494273828 165.20585993047 165.20585993047 165.20585993047 165.20585993047 74.683174692974 74.683174692974 74.683174692974 74.683174692974 51.063006344952 210.46483553313 84.0762141137 84.0762141137 4.3752995196098 4.3752995196098 4.3752995196098 4.3752995196098 250.01745410161 250.01745410161 250.01745410161 250.01745410161 263.23415021625 259.3654039349 267.10289649758 263.23415021625 414.20598871905 414.20598871905 414.20598871905 414.20598871905 414.20598871905 414.20598871905 414.20598871905 414.20598871905 24.501472220496 24.501472220496 24.501472220496 24.501472220496 4.3752995196098 4.3752995196098 4.3752995196098 4.3752995196098 55.200512745945 55.200512745945 55.2005127459